
                                 *****************
                                 * O   R   C   A *
                                 *****************

                                            #,                                       
                                            ###                                      
                                            ####                                     
                                            #####                                    
                                            ######                                   
                                           ########,                                 
                                     ,,################,,,,,                         
                               ,,#################################,,                 
                          ,,##########################################,,             
                       ,#########################################, ''#####,          
                    ,#############################################,,   '####,        
                  ,##################################################,,,,####,       
                ,###########''''           ''''###############################       
              ,#####''   ,,,,##########,,,,          '''####'''          '####       
            ,##' ,,,,###########################,,,                        '##       
           ' ,,###''''                  '''############,,,                           
         ,,##''                                '''############,,,,        ,,,,,,###''
      ,#''                                            '''#######################'''  
     '                                                          ''''####''''         
             ,#######,   #######,   ,#######,      ##                                
            ,#'     '#,  ##    ##  ,#'     '#,    #''#        ,####,   ,####,        
            ##       ##  ##   ,#'  ##            #'  '#       #'       #'  '#        
            ##       ##  #######   ##           ,######,      #####,   #    #        
            '#,     ,#'  ##    ##  '#,     ,#' ,#      #,     #,   #   #,  ,#        
             '#######'   ##     ##  '#######'  #'      '#     '####' # '####'        



                #########################################################
                #                        -***-                          #
                #          Department of theory and spectroscopy        #
                #                                                       #
                #                      Frank Neese                      #
                #                                                       #
                #     Directorship, Architecture, Infrastructure        #
                #                    SHARK, DRIVERS                     #
                #        Core code/Algorithms in most modules           #
                #                                                       #
                #        Max Planck Institute fuer Kohlenforschung      #
                #                Kaiser Wilhelm Platz 1                 #
                #                 D-45470 Muelheim/Ruhr                 #
                #                      Germany                          #
                #                                                       #
                #                  All rights reserved                  #
                #                        -***-                          #
                #########################################################


                         Program Version 6.0.1  -  RELEASE   -


 With contributions from (in alphabetic order):
[Max-Planck-Institut fuer Kohlenforschung]                               
  Daniel Aravena         : Magnetic Suceptibility                        
  Michael Atanasov       : Ab Initio Ligand Field Theory (pilot matlab implementation)
  Alexander A. Auer      : GIAO ZORA, VPT2 properties, NMR spectrum      
  Ute Becker             : All parallelization in ORCA, NUMFREQ, NUMCALC 
  Giovanni Bistoni       : ED, misc. LED, open-shell LED, HFLD           
  Martin Brehm           : Molecular dynamics                            
  Dmytro Bykov           : pre 5.0 version of the SCF Hessian            
  Marcos Casanova-Páez   : Triplet and SCS-CIS(D). UHF-(DLPNO)-IP/EA/STEOM-CCSD. UHF-CVS-IP/STEOM-CCSD   
  Vijay G. Chilkuri      : MRCI spin determinant printing, contributions to CSF-ICE 
  Pauline Colinet        : FMM embedding                                 
  Dipayan Datta          : RHF DLPNO-CCSD density                        
  Achintya Kumar Dutta   : EOM-CC, STEOM-CC                              
  Nicolas Foglia         : Exact transition moments, OPA infrastructure, MCD improvements    
  Dmitry Ganyushin       : Spin-Orbit,Spin-Spin,Magnetic field MRCI      
  Miquel Garcia-Rates    : C-PCM and meta-GGA Hessian, CCSD/C-PCM, Gaussian charge scheme 
  Tiago L. C. Gouveia    : GS-ROHF, GS-ROCIS                             
  Yang Guo               : DLPNO-NEVPT2, F12-NEVPT2, CIM, IAO-localization        
  Andreas Hansen         : Spin unrestricted coupled pair/coupled cluster methods 
  Ingolf Harden          : AUTO-CI MPn and infrastructure                
  Benjamin Helmich-Paris : MC-RPA, TRAH-(SCF,CASSCF), AVAS, COSX integrals, SCF dyn. polar. 
  Lee Huntington         : MR-EOM, pCC                                   
  Robert Izsak           : Overlap fitted RIJCOSX, COSX-SCS-MP3, EOM     
  Riya Kayal             : Wick's Theorem for AUTO-CI, AUTO-CI UHF-CCSDT 
  Emily Kempfer          : AUTO-CI, RHF CISDT and CCSDT                  
  Christian Kollmar      : KDIIS, OOCD, Brueckner-CCSD(T), CCSD density, CASPT2, CASPT2-K, improved NEVPT2 
  Axel Koslowski         : Symmetry handling                             
  Simone Kossmann        : meta-GGA functionals, TD-DFT gradient, OOMP2, (MP2 Hessian; deprecated post 5.0) 
  Lucas Lang             : DCDCAS                                        
  Marvin Lechner         : AUTO-CI (C++ implementation), FIC-MRCC        
  Spencer Leger          : CASSCF response                               
  Dagmar Lenk            : GEPOL surface, SMD, ORCA-2-JSON               
  Dimitrios Liakos       : Extrapolation schemes; Compound Job, initial MDCI parallelization 
  Dimitrios Manganas     : Further ROCIS development; embedding schemes. LFT, Crystal Embedding 
  Dimitrios Pantazis     : SARC Basis sets                               
  Anastasios Papadopoulos: AUTO-CI, single reference methods and gradients 
  Taras Petrenko         : pre 6.0 DFT Hessian and TD-DFT gradient, (ASA, deprecated), ECA, 1-Electron XAS/XES, NRVS 
  Peter Pinski           : DLPNO-MP2, DLPNO-MP2 Gradient                 
  Christoph Reimann      : Effective Core Potentials                     
  Marius Retegan         : Local ZFS, SOC                                
  Christoph Riplinger    : Optimizer, TS searches, QM/MM, DLPNO-CCSD(T), (RO)-DLPNO pert. Triples 
  Michael Roemelt        : Original ROCIS implementation                 
  Masaaki Saitow         : Open-shell DLPNO-CCSD energy and density      
  Barbara Sandhoefer     : DKH picture change effects                    
  Kantharuban Sivalingam : CASSCF convergence/infrastructure, NEVPT2 and variants, FIC-MRCI 
  Bernardo de Souza      : ESD, SOC TD-DFT                               
  Georgi L. Stoychev     : AutoAux, RI-MP2 NMR, DLPNO-MP2 response, X2C  
  Van Anh Tran           : RI-MP2 g-tensors                              
  Willem Van den Heuvel  : Paramagnetic NMR                              
  Zikuan Wang            : NOTCH, Electric field optimization            
  Frank Wennmohs         : Technical directorship and infrastructure     
  Hang Xu                : AUTO-CI-Response properties                   
                                                                         
[FACCTs GmbH]                                                            
  Markus Bursch, Miquel Garcia-Rates, Christoph Riplinger, Bernardo de Souza, Georgi L. Stoychev 
                                                                 
  APM, Basis sets (HGBS, AHGBS, def-TZVP (Ac-Lr), def2-XVPD (La-Lu)), CI-OPT, improved COSX, DLPNO-Multilevel,           
  DOCKER, DRACO, updates on ESD, GOAT, IRC, LR-CPCM, MBIS, meta-GGA TD-DFT gradient, ML-optimized integration grids, 
  MM, NACMEs, nearIR, NEB, NEB-TS, NL-DFT gradient (VV10), 2- and 3-layer-ONIOM, interface openCOSMO-RS, QMMM,   
  Crystal-QMMM, SF, symmetry and pop. for TD-DFT, r2SCAN hybrids, SOLVATOR                                   
                                                                         
[Other institutions]                                                     
  V. Asgeirsson          : NEB                                           
  Christoph Bannwarth    : sTDA-DFT, sTD-DFT, PBEh-3c, B97-3c, D3        
  Sebastian Ehlert       : rSCAN, r2SCAN, r2SCAN-3c, D4, dhf basis sets  
  Marvin Friede          : D4 for Fr, Ra, Ac-Lr                          
  Lars Goerigk           : TD-DFT with DH, B97 family of functionals     
  Stefan Grimme          : VdW corrections, initial TS optimization, DFT functionals, gCP, sTDA/sTD-DF 
  Waldemar Hujo          : DFT-NL                                        
  H. Jonsson             : NEB                                           
  Holger Kruse           : gCP                                           
  Marcel Mueller         : wB97X-3c, vDZP basis set                      
  Hagen Neugebauer       : wr2SCAN                                       
  Tobias Risthaus        : range-separated hybrid DFT                    
  Lukas Wittmann         : regularized MP2, r2SCAN double-hybrids, wr2SCAN        
                                                                         
We gratefully acknowledge several colleagues who have allowed us to      
interface, adapt or use parts of their codes:                            
  Ed Valeev, F. Pavosevic, A. Kumar             : LibInt (2-el integral package), F12 methods 
  Garnet Chan, S. Sharma, J. Yang, R. Olivares  : DMRG                   
  Ulf Ekstrom                                   : XCFun DFT Library      
  Mihaly Kallay                                 : mrcc  (arbitrary order and MRCC methods)
  Frank Weinhold                                : gennbo (NPA and NBO analysis)           
  Simon Mueller                                 : openCOSMO-RS                            
  Christopher J. Cramer and Donald G. Truhlar   : smd solvation model                     
  S Lehtola, MJT Oliveira, MAL Marques          : LibXC Library                           
  Liviu Ungur et al                             : ANISO software                          


 Your calculation uses the libint2 library for the computation of 2-el integrals
 For citations please refer to: http://libint.valeyev.net

 Your ORCA version has been built with support for libXC version: 6.2.2
 For citations please refer to: https://libxc.gitlab.io

 This ORCA versions uses:
   CBLAS   interface :  Fast vector & matrix operations
   LAPACKE interface :  Fast linear algebra routines
   SCALAPACK package :  Parallel linear algebra routines
   Shared memory     :  Shared parallel matrices
   BLAS/LAPACK       :  OpenBLAS 0.3.27  USE64BITINT DYNAMIC_ARCH NO_AFFINITY Haswell SINGLE_THREADED
        Core in use  :  Haswell
   Copyright (c) 2011-2014, The OpenBLAS Project


Your calculation utilizes the atom-pairwise dispersion correction
with the Becke-Johnson damping scheme (D3BJ)


================================================================================

----- Orbital basis set information -----
Your calculation utilizes the basis: def2-TZVP
   F. Weigend and R. Ahlrichs, Phys. Chem. Chem. Phys. 7, 3297 (2005).

----- AuxJ basis set information -----
Your calculation utilizes the auxiliary basis: def2/J
   F. Weigend, Phys. Chem. Chem. Phys. 8, 1057 (2006).

================================================================================
                                        WARNINGS
                       Please study these warnings very carefully!
================================================================================


================================================================================
                                       INPUT FILE
================================================================================
NAME = dienophile_1.inp
|  1> ! B3LYP D3 def2-TZVP def2/J RIJCOSX opt noautostart miniprint
|  2> * xyz   0   1
|  3> C     -3.66206043   -1.21771098   -0.69621447
|  4> H     -3.12889668   -2.14541590   -0.69621447
|  5> H     -4.57444336   -1.12712646   -1.24780474
|  6> C     -3.18572959   -0.15706902    0.00000000
|  7> C     -1.87258032   -0.28744300    0.79387759
|  8> H     -1.07541545   -0.53885518    0.12588052
|  9> H     -1.65375618    0.64214311    1.27645988
| 10> H     -1.97618681   -1.05620145    1.53088244
| 11> O     -3.89827553    1.08276092    0.00000000
| 12> C     -3.53735000    1.84075010    1.15762048
| 13> H     -3.92876475    2.83278601    1.07067659
| 14> H     -3.94200801    1.37291062    2.03070588
| 15> H     -2.47121417    1.88372014    1.23767015
| 16> *
| 17> 
| 18>                          ****END OF INPUT****
================================================================================

                       *****************************
                       * Geometry Optimization Run *
                       *****************************

Geometry optimization settings:
Update method            Update   .... BFGS
Choice of coordinates    CoordSys .... (2022) Redundant Internals
Initial Hessian          InHess   .... Almloef's Model
Max. no of cycles        MaxIter  .... 50

Convergence Tolerances:
Energy Change            TolE     ....  5.0000e-06 Eh
Max. Gradient            TolMAXG  ....  3.0000e-04 Eh/bohr
RMS Gradient             TolRMSG  ....  1.0000e-04 Eh/bohr
Max. Displacement        TolMAXD  ....  4.0000e-03 bohr
RMS Displacement         TolRMSD  ....  2.0000e-03 bohr
Strict Convergence                .... False

------------------------------------------------------------------------------
                        ORCA OPTIMIZATION COORDINATE SETUP
------------------------------------------------------------------------------

The optimization will be done in redundant internal coordinates (2022)
Making redundant internal coordinates   ...  (2022 redundants) done
Evaluating the initial hessian          ...  (Almloef) done
Evaluating the coordinates              ...  done
Calculating the B-matrix                .... done
Calculating the G-matrix                .... done
Diagonalizing the G-matrix              .... done
Small eigenvalue found = 2.512e-02
The first mode is                       ....   12
The number of degrees of freedom        ....   33

    -----------------------------------------------------------------
                    Redundant Internal Coordinates


    -----------------------------------------------------------------
         Definition                    Initial Value    Approx d2E/dq
    -----------------------------------------------------------------
      1. B(H   1,C   0)                  1.0700         0.387554   
      2. B(H   2,C   0)                  1.0700         0.387554   
      3. B(C   3,C   0)                  1.3552         0.710002   
      4. B(C   4,C   3)                  1.5400         0.360100   
      5. B(H   5,C   4)                  1.0700         0.387554   
      6. B(H   6,C   4)                  1.0700         0.387554   
      7. B(H   7,C   4)                  1.0700         0.387554   
      8. B(O   8,C   3)                  1.4300         0.483123   
      9. B(C   9,O   8)                  1.4300         0.483123   
     10. B(H  10,C   9)                  1.0700         0.387554   
     11. B(H  11,C   9)                  1.0700         0.387554   
     12. B(H  12,C   9)                  1.0700         0.387554   
     13. A(H   2,C   0,C   3)          119.8865         0.365694   
     14. A(H   1,C   0,H   2)          119.8865         0.297665   
     15. A(H   1,C   0,C   3)          120.2269         0.365694   
     16. A(C   4,C   3,O   8)          119.8865         0.375013   
     17. A(C   0,C   3,O   8)          120.2269         0.422517   
     18. A(C   0,C   3,C   4)          119.8865         0.403643   
     19. A(H   5,C   4,H   6)          109.4713         0.297665   
     20. A(C   3,C   4,H   6)          109.4712         0.326284   
     21. A(H   6,C   4,H   7)          109.4712         0.297665   
     22. A(C   3,C   4,H   5)          109.4712         0.326284   
     23. A(H   5,C   4,H   7)          109.4712         0.297665   
     24. A(C   3,C   4,H   7)          109.4712         0.326284   
     25. A(C   3,O   8,C   9)          109.5000         0.392169   
     26. A(O   8,C   9,H  11)          109.4712         0.340517   
     27. A(O   8,C   9,H  10)          109.4712         0.340517   
     28. A(H  11,C   9,H  12)          109.4712         0.297665   
     29. A(H  10,C   9,H  12)          109.4712         0.297665   
     30. A(O   8,C   9,H  12)          109.4712         0.340517   
     31. A(H  10,C   9,H  11)          109.4713         0.297665   
     32. D(O   8,C   3,C   0,H   2)     -0.0000         0.035590   
     33. D(O   8,C   3,C   0,H   1)    180.0000         0.035590   
     34. D(C   4,C   3,C   0,H   1)      0.0000         0.035590   
     35. D(C   4,C   3,C   0,H   2)    180.0000         0.035590   
     36. D(H   5,C   4,C   3,O   8)   -120.0111         0.009750   
     37. D(H   6,C   4,C   3,C   0)    179.9889         0.009750   
     38. D(H   5,C   4,C   3,C   0)     59.9889         0.009750   
     39. D(H   7,C   4,C   3,C   0)    -60.0111         0.009750   
     40. D(H   6,C   4,C   3,O   8)     -0.0111         0.009750   
     41. D(C   9,O   8,C   3,C   4)    -22.6979         0.016748   
     42. D(C   9,O   8,C   3,C   0)    157.3021         0.016748   
     43. D(H  12,C   9,O   8,C   3)     49.8593         0.018418   
     44. D(H  11,C   9,O   8,C   3)    -70.1407         0.018418   
     45. D(H  10,C   9,O   8,C   3)    169.8593         0.018418   
    -----------------------------------------------------------------

Number of atoms                         .... 13
Number of degrees of freedom            .... 45


         *************************************************************
         *                GEOMETRY OPTIMIZATION CYCLE   1            *
         *************************************************************
---------------------------------
CARTESIAN COORDINATES (ANGSTROEM)
---------------------------------
  C     -3.662060   -1.217711   -0.696214
  H     -3.128897   -2.145416   -0.696214
  H     -4.574443   -1.127126   -1.247805
  C     -3.185730   -0.157069    0.000000
  C     -1.872580   -0.287443    0.793878
  H     -1.075415   -0.538855    0.125881
  H     -1.653756    0.642143    1.276460
  H     -1.976187   -1.056201    1.530882
  O     -3.898276    1.082761    0.000000
  C     -3.537350    1.840750    1.157620
  H     -3.928765    2.832786    1.070677
  H     -3.942008    1.372911    2.030706
  H     -2.471214    1.883720    1.237670

----------------------------
CARTESIAN COORDINATES (A.U.)
----------------------------
  NO LB      ZA    FRAG     MASS         X           Y           Z
   0 C     6.0000    0    12.011   -6.920291   -2.301140   -1.315655
   1 H     1.0000    0     1.008   -5.912758   -4.054248   -1.315655
   2 H     1.0000    0     1.008   -8.644445   -2.129960   -2.358009
   3 C     6.0000    0    12.011   -6.020156   -0.296817    0.000000
   4 C     6.0000    0    12.011   -3.538664   -0.543189    1.500211
   5 H     1.0000    0     1.008   -2.032241   -1.018289    0.237880
   6 H     1.0000    0     1.008   -3.125146    1.213475    2.412160
   7 H     1.0000    0     1.008   -3.734452   -1.995931    2.892949
   8 O     8.0000    0    15.999   -7.366673    2.046122    0.000000
   9 C     6.0000    0    12.011   -6.684623    3.478514    2.187586
  10 H     1.0000    0     1.008   -7.424289    5.353190    2.023286
  11 H     1.0000    0     1.008   -7.449316    2.594425    3.837478
  12 H     1.0000    0     1.008   -4.669918    3.559715    2.338858

------------------------------------------------------------------------------
                   ___                                                        
                  /   \      - P O W E R E D   B Y -                         
                 /     \                                                     
                 |  |  |   _    _      __       _____    __    __             
                 |  |  |  | |  | |    /  \     |  _  \  |  |  /  |          
                  \  \/   | |  | |   /    \    | | | |  |  | /  /          
                 / \  \   | |__| |  /  /\  \   | |_| |  |  |/  /          
                |  |  |   |  __  | /  /__\  \  |    /   |      \           
                |  |  |   | |  | | |   __   |  |    \   |  |\   \          
                \     /   | |  | | |  |  |  |  | |\  \  |  | \   \       
                 \___/    |_|  |_| |__|  |__|  |_| \__\ |__|  \__/        
                                                                              
                      - O R C A' S   B I G   F R I E N D -                    
                                      &                                       
                       - I N T E G R A L  F E E D E R -                       
                                                                              
 v1 FN, 2020, v2 2021, v3 2022-2024                                           
------------------------------------------------------------------------------


----------------------
SHARK INTEGRAL PACKAGE
----------------------

Number of atoms                             ...     13
Number of basis functions                   ...    203
Number of shells                            ...     87
Maximum angular momentum                    ...      3
Integral batch strategy                     ... SHARK/LIBINT Hybrid
RI-J (if used) integral strategy            ... SPLIT-RIJ (Revised 2003 algorithm where possible)
Printlevel                                  ...      1
Contraction scheme used                     ... SEGMENTED contraction
Prescreening option                         ... SCHWARTZ
   Thresh                                   ... 2.500e-11
   Tcut                                     ... 2.500e-12
   Tpresel                                  ... 2.500e-12 
Coulomb Range Separation                    ... NOT USED
Exchange Range Separation                   ... NOT USED
Multipole approximations                    ... NOT USED
Finite Nucleus Model                        ... NOT USED
CABS basis                                  ... NOT available
Auxiliary Coulomb fitting basis             ... AVAILABLE
   # of basis functions in Aux-J            ...    333
   # of shells in Aux-J                     ...    115
   Maximum angular momentum in Aux-J        ...      4
Auxiliary J/K fitting basis                 ... NOT available
Auxiliary Correlation fitting basis         ... NOT available
Auxiliary 'external' fitting basis          ... NOT available

Checking pre-screening integrals            ... done (  0.0 sec) Dimension = 87
Check shell pair data                       ... done (  0.0 sec)
Shell pair information
Shell pair cut-off parameter TPreSel        ...   2.5e-12
Total number of shell pairs                 ...      3828
Shell pairs after pre-screening             ...      3682
Total number of primitive shell pairs       ...     11160
Primitive shell pairs kept                  ...      8527
          la=0 lb=0:   1145 shell pairs
          la=1 lb=0:   1079 shell pairs
          la=1 lb=1:    274 shell pairs
          la=2 lb=0:    480 shell pairs
          la=2 lb=1:    228 shell pairs
          la=2 lb=2:     55 shell pairs
          la=3 lb=0:    241 shell pairs
          la=3 lb=1:    115 shell pairs
          la=3 lb=2:     50 shell pairs
          la=3 lb=3:     15 shell pairs

Calculating one electron integrals          ... done (  0.0 sec)
Calculating RI/J V-Matrix + Cholesky decomp.... done (  0.0 sec)
Calculating Nuclear repulsion               ... done (  0.0 sec) ENN=    179.453798037199 Eh

Diagonalization of the overlap matrix:
Smallest eigenvalue                        ... 1.601e-04
Time for diagonalization                   ...    0.004 sec
Threshold for overlap eigenvalues          ... 1.000e-07
Number of eigenvalues below threshold      ... 0
Time for construction of square roots      ...    0.001 sec
Total time needed                          ...    0.005 sec

-------------------
DFT GRID GENERATION
-------------------

General Integration Accuracy     IntAcc      ... 4.388
Radial Grid Type                 RadialGrid  ... OptM3 with GC (2021)
Angular Grid (max. ang.)         AngularGrid ... 4 (Lebedev-302)
Angular grid pruning method      GridPruning ... 4 (adaptive)
Weight generation scheme         WeightScheme... mBecke (2022)
Basis function cutoff            BFCut       ... 1.0000e-11
Integration weight cutoff        WCut        ... 1.0000e-14
Partially contracted basis set               ... off
Rotationally invariant grid construction     ... off
Angular grids for H and He will be reduced by one unit

Total number of grid points                  ...    56093
Total number of batches                      ...      884
Average number of points per batch           ...       63
Average number of grid points per atom       ...     4315

--------------------
COSX GRID GENERATION
--------------------

GRIDX 1
-------
General Integration Accuracy     IntAcc      ... 3.816
Radial Grid Type                 RadialGrid  ... OptM3 with GC (2021)
Angular Grid (max. ang.)         AngularGrid ... 1 (Lebedev-50)
Angular grid pruning method      GridPruning ... 4 (adaptive)
Weight generation scheme         WeightScheme... mBecke (2022)
Basis function cutoff            BFCut       ... 1.0000e-11
Integration weight cutoff        WCut        ... 1.0000e-14
Partially contracted basis set               ... on
Rotationally invariant grid construction     ... off
Angular grids for H and He will be reduced by one unit

Total number of grid points                  ...     7214
Total number of batches                      ...       64
Average number of points per batch           ...      112
Average number of grid points per atom       ...      555
UseSFitting                                  ... on

GRIDX 2
-------
General Integration Accuracy     IntAcc      ... 4.020
Radial Grid Type                 RadialGrid  ... OptM3 with GC (2021)
Angular Grid (max. ang.)         AngularGrid ... 2 (Lebedev-110)
Angular grid pruning method      GridPruning ... 4 (adaptive)
Weight generation scheme         WeightScheme... mBecke (2022)
Basis function cutoff            BFCut       ... 1.0000e-11
Integration weight cutoff        WCut        ... 1.0000e-14
Partially contracted basis set               ... on
Rotationally invariant grid construction     ... off
Angular grids for H and He will be reduced by one unit

Total number of grid points                  ...    15252
Total number of batches                      ...      127
Average number of points per batch           ...      120
Average number of grid points per atom       ...     1173
UseSFitting                                  ... on

GRIDX 3
-------
General Integration Accuracy     IntAcc      ... 4.338
Radial Grid Type                 RadialGrid  ... OptM3 with GC (2021)
Angular Grid (max. ang.)         AngularGrid ... 3 (Lebedev-194)
Angular grid pruning method      GridPruning ... 4 (adaptive)
Weight generation scheme         WeightScheme... mBecke (2022)
Basis function cutoff            BFCut       ... 1.0000e-11
Integration weight cutoff        WCut        ... 1.0000e-14
Partially contracted basis set               ... on
Rotationally invariant grid construction     ... off
Angular grids for H and He will be reduced by one unit

Total number of grid points                  ...    33427
Total number of batches                      ...      267
Average number of points per batch           ...      125
Average number of grid points per atom       ...     2571
UseSFitting                                  ... on
Initializing property integral containers    ... done (  0.0 sec)

SHARK setup successfully completed in   0.6 seconds

Maximum memory used throughout the entire STARTUP-calculation: 30.2 MB
Loading Hartree-Fock densities                     ... done
Calculating cut-offs                               ... done
Initializing the effective Hamiltonian             ... done
Setting up the integral package (SHARK)            ... done
Starting the Coulomb interaction                   ... done (   0.1 sec)
Making the grid                                    ... done (   0.1 sec)
Mapping shells                                     ... done
Starting the XC term evaluation                    ... done (   0.1 sec)
  promolecular density results
     # of electrons  =     39.995600269
     EX              =    -31.122101832
     EC              =     -1.311371675
     EX+EC           =    -32.433473507
Transforming the Hamiltonian                       ... done (   0.0 sec)
Diagonalizing the Hamiltonian                      ... done (   0.0 sec)
Back transforming the eigenvectors                 ... done (   0.0 sec)
Now organizing SCF variables                       ... done
             **** ENERGY FILE WAS UPDATED (dienophile_1.en.tmp) ****
Finished Guess after   0.2 sec
Maximum memory used throughout the entire GUESS-calculation: 18.6 MB
----------------------------------------D-I-I-S--------------------------------------------
Iteration    Energy (Eh)           Delta-E    RMSDP     MaxDP     DIISErr   Damp  Time(sec)
-------------------------------------------------------------------------------------------
               ***  Starting incremental Fock matrix formation  ***
    1    -232.1722820487669026     0.00e+00  1.58e-03  4.29e-02  1.96e-01  0.700   2.0
    2    -232.2577238916622662    -8.54e-02  1.20e-03  2.71e-02  1.01e-01  0.700   1.1
                               ***Turning on AO-DIIS***
    3    -232.2934867195905611    -3.58e-02  5.23e-04  9.54e-03  4.04e-02  0.700   1.1
    4    -232.3139305334318863    -2.04e-02  8.30e-04  1.56e-02  2.02e-02  0.000   1.0
    5    -232.3578328765585468    -4.39e-02  2.05e-04  4.17e-03  6.55e-03  0.000   1.0
                              *** Initializing SOSCF ***
---------------------------------------S-O-S-C-F--------------------------------------
Iteration    Energy (Eh)           Delta-E    RMSDP     MaxDP     MaxGrad    Time(sec)
--------------------------------------------------------------------------------------
    6    -232.3580791939154722    -2.46e-04  7.64e-05  1.73e-03  2.44e-03     1.0
               *** Restarting incremental Fock matrix formation ***
    7    -232.3581008006414947    -2.16e-05  6.28e-05  1.42e-03  1.80e-04     1.9
    8    -232.3581005729513720     2.28e-07  1.55e-05  3.82e-04  3.63e-04     1.6
    9    -232.3581028632853247    -2.29e-06  1.20e-05  2.58e-04  1.14e-04     1.5
   10    -232.3581028461539688     1.71e-08  4.03e-06  9.66e-05  7.73e-05     1.5
   11    -232.3581030253396023    -1.79e-07  1.29e-06  2.85e-05  6.62e-06     1.4
   12    -232.3581030208870573     4.45e-09  5.79e-07  1.47e-05  1.14e-05     1.3
                 **** Energy Check signals convergence ****

               *****************************************************
               *                     SUCCESS                       *
               *           SCF CONVERGED AFTER  12 CYCLES          *
               *****************************************************

Recomputing exchange energy using gridx3       ... done (    3.140 sec)
Old exchange energy                            :     -6.359750983 Eh
New exchange energy                            :     -6.359749413 Eh
Exchange energy change after final integration :      0.000001570 Eh
Total energy after final integration           :   -232.358101451 Eh
             **** ENERGY FILE WAS UPDATED (dienophile_1.en.tmp) ****

----------------
TOTAL SCF ENERGY
----------------

Total Energy       :       -232.35810145117529 Eh           -6322.78538 eV

Components:
Nuclear Repulsion  :        179.45379803719854 Eh            4883.18610 eV
Electronic Energy  :       -411.81190105808560 Eh          -11205.97153 eV
One Electron Energy:       -669.22007834172939 Eh          -18210.40413 eV
Two Electron Energy:        257.40817728364379 Eh            7004.43260 eV

Virial components:
Potential Energy   :       -463.72368773637731 Eh          -12618.56306 eV
Kinetic Energy     :        231.36558628520206 Eh            6295.77767 eV
Virial Ratio       :          2.00428981328602

DFT components:
N(Alpha)           :       20.000012416688 electrons
N(Beta)            :       20.000012416688 electrons
N(Total)           :       40.000024833376 electrons
E(X)               :      -25.264201449951 Eh       
E(C)               :       -1.555616623942 Eh       
E(XC)              :      -26.819818073893 Eh       

---------------
SCF CONVERGENCE
---------------

  Last Energy change         ...   -4.4525e-09  Tolerance :   1.0000e-08
  Last MAX-Density change    ...    1.4685e-05  Tolerance :   1.0000e-07
  Last RMS-Density change    ...    5.7855e-07  Tolerance :   5.0000e-09
  Last DIIS Error            ...    2.4418e-03  Tolerance :   5.0000e-07
  Last Orbital Gradient      ...    1.1443e-05  Tolerance :   1.0000e-05
  Last Orbital Rotation      ...    1.4984e-05  Tolerance :   1.0000e-05


----------------
ORBITAL ENERGIES
----------------

  NO   OCC          E(Eh)            E(eV) 
   0   2.0000     -19.149699      -521.0898 
   1   2.0000     -10.231206      -278.4053 
   2   2.0000     -10.209415      -277.8123 
   3   2.0000     -10.167670      -276.6764 
   4   2.0000     -10.144246      -276.0390 
   5   2.0000      -1.040768       -28.3207 
   6   2.0000      -0.778658       -21.1883 
   7   2.0000      -0.719760       -19.5857 
   8   2.0000      -0.669781       -18.2257 
   9   2.0000      -0.551175       -14.9982 
  10   2.0000      -0.495368       -13.4796 
  11   2.0000      -0.474015       -12.8986 
  12   2.0000      -0.467324       -12.7165 
  13   2.0000      -0.424924       -11.5628 
  14   2.0000      -0.404569       -11.0089 
  15   2.0000      -0.389157       -10.5895 
  16   2.0000      -0.385619       -10.4932 
  17   2.0000      -0.339870        -9.2483 
  18   2.0000      -0.314151        -8.5485 
  19   2.0000      -0.222668        -6.0591 
  20   0.0000       0.011928         0.3246 
  21   0.0000       0.039176         1.0660 
  22   0.0000       0.063006         1.7145 
  23   0.0000       0.084242         2.2923 
  24   0.0000       0.100755         2.7417 
  25   0.0000       0.111012         3.0208 
  26   0.0000       0.115197         3.1347 
  27   0.0000       0.120639         3.2828 
  28   0.0000       0.134154         3.6505 
  29   0.0000       0.147803         4.0219 
  30   0.0000       0.164964         4.4889 
*Only the first 10 virtual orbitals were printed.
Total SCF time: 0 days 0 hours 0 min 19 sec 
Finished LeanSCF after  19.5 sec

Maximum memory used throughout the entire LEANSCF-calculation: 23.5 MB


-------------------------------------------------------------------------------
                          DFT DISPERSION CORRECTION                            
                                                                               
                              DFTD3 V3.1  Rev 1                                
                          USING Becke-Johnson damping                          
-------------------------------------------------------------------------------
-------------------------   ----------------
Dispersion correction           -0.014951890
-------------------------   ----------------


-------------------------   --------------------
FINAL SINGLE POINT ENERGY      -232.373053340683
-------------------------   --------------------

------------------------------------------------------------------------------
                         ORCA SCF GRADIENT CALCULATION
------------------------------------------------------------------------------

Nuc. rep. gradient        (SHARK) ... done (  0.0 sec)
HCore & Overlap gradient  (SHARK) ... done (  0.1 sec)
Split-RIJ-J gradient      (SHARK) ... done (  0.5 sec)
COSX-gradient                     ... done ( 13.5 sec)
XC gradient                       ... done (  2.0 sec)
Dispersion correction             ... done (  0.0 sec)

-------------------
DISPERSION GRADIENT
-------------------

   1   C   :   -0.000235412   -0.000402527   -0.000363569
   2   H   :   -0.000065204   -0.000203036   -0.000122925
   3   H   :   -0.000136301   -0.000120993   -0.000144656
   4   C   :   -0.000016878   -0.000141025   -0.000133031
   5   C   :    0.000323729   -0.000145955    0.000074581
   6   H   :    0.000285070   -0.000079665   -0.000003895
   7   H   :    0.000211439    0.000026106    0.000106665
   8   H   :    0.000197136   -0.000182088    0.000170955
   9   O   :   -0.000198293    0.000228385   -0.000063991
  10   C   :   -0.000149379    0.000404308    0.000150334
  11   H   :   -0.000092486    0.000221154    0.000051175
  12   H   :   -0.000147974    0.000181050    0.000189482
  13   H   :    0.000024553    0.000214287    0.000088875

Difference to translation invariance:
           :    0.0000000000   -0.0000000000   -0.0000000000

Difference to rotation invariance:
           :   -0.0000000000    0.0000000000    0.0000000000

Norm of the Dispersion gradient    ...    0.0011783736
RMS gradient                       ...    0.0001886908
MAX gradient                       ...    0.0004043080

------------------
CARTESIAN GRADIENT
------------------

   1   C   :   -0.004745807   -0.035990406   -0.016105990
   2   H   :   -0.004006894    0.005251241    0.001043873
   3   H   :    0.006937002    0.001423609    0.004501758
   4   C   :    0.012040247    0.013431055    0.011292384
   5   C   :    0.023371156   -0.007475868    0.015188531
   6   H   :   -0.010098365    0.003368526    0.007544912
   7   H   :   -0.013748846    0.004089078   -0.005690980
   8   H   :   -0.000075333    0.008822116   -0.009792054
   9   O   :   -0.028582967    0.028741024   -0.007962646
  10   C   :    0.010383586   -0.002389603    0.013778084
  11   H   :    0.007442276   -0.010335518    0.005252734
  12   H   :    0.005039336    0.005488643   -0.015219236
  13   H   :   -0.003955392   -0.014423896   -0.003831369

Difference to translation invariance:
           :   -0.0000000000   -0.0000000000   -0.0000000000

Difference to rotation invariance:
           :   -0.0000197459   -0.0001907199   -0.0001511121

Norm of the Cartesian gradient     ...    0.0792796855
RMS gradient                       ...    0.0126949097
MAX gradient                       ...    0.0359904065

-------
TIMINGS
-------

Total SCF gradient time     ....       16.200 sec

Densities                   ....       0.000 sec  (  0.0%)
One electron gradient       ....       0.091 sec  (  0.6%)
RI-J Coulomb gradient       ....       0.538 sec  (  3.3%)
COSX gradient               ....      13.523 sec  ( 83.5%)
XC gradient                 ....       2.028 sec  ( 12.5%)

Maximum memory used throughout the entire SCFGRAD-calculation: 35.6 MB
------------------------------------------------------------------------------
                         ORCA GEOMETRY RELAXATION STEP
------------------------------------------------------------------------------

Reading the OPT-File                    .... done
Getting information on internals        .... done
Copying old internal coords+grads       .... done
Making the new internal coordinates     .... (2022 redundants) done
Validating the new internal coordinates .... (2022 redundants) done
Calculating the B-matrix                .... done
Calculating the G,G- and P matrices     .... done
Transforming gradient to internals      .... done
Projecting the internal gradient        .... done
Number of atoms                         ....  13
Number of internal coordinates          ....  45
Current Energy                          ....  -232.373053341 Eh
Current gradient norm                   ....     0.079279685 Eh/bohr
Maximum allowed component of the step   ....  0.300
Current trust radius                    ....  0.300
Evaluating the initial hessian          ....  (Almloef) done
Projecting the Hessian                  .... done
Forming the augmented Hessian           .... done
Diagonalizing the augmented Hessian     .... done
Last element of RFO vector              ....  0.931055040
Lowest eigenvalues of augmented Hessian:
 -0.045394994  0.009787521  0.017066077  0.020170814  0.021654497
Length of the computed step             ....  0.391898166
Warning: the length of the step is outside the trust region - taking restricted step instead
The input lambda is                     ....     0.008750
   iter:   5  x=   -0.021331  g=   27.150957 f(x)=     0.366684
   iter:  10  x=   -0.104698  g=    0.559934 f(x)=     0.000386
The output lambda is                    ....    -0.104701 (13 iterations)
The final length of the internal step   ....  0.300000000
Converting the step to Cartesian space:
 Initial RMS(Int)=    0.0447213595
Transforming coordinates:
 Iter   0:  RMS(Cart)=    0.2595148116 RMS(Int)=    0.9367253239
 Iter   5:  RMS(Cart)=    0.0000455196 RMS(Int)=    0.0000343411
 Iter  10:  RMS(Cart)=    0.0000000317 RMS(Int)=    0.0000000290
done
Storing new coordinates                 .... done

                                .--------------------.
          ----------------------|Geometry convergence|-------------------------
          Item                value                   Tolerance       Converged
          ---------------------------------------------------------------------
          RMS gradient        0.0202765599            0.0001000000      NO
          MAX gradient        0.1057550116            0.0003000000      NO
          RMS step            0.0447213595            0.0020000000      NO
          MAX step            0.2128421463            0.0040000000      NO
          ........................................................
          Max(Bonds)      0.0188      Max(Angles)   12.19
          Max(Dihed)        4.50      Max(Improp)    0.00
          ---------------------------------------------------------------------

The optimization has not yet converged - more geometry cycles are needed


    ---------------------------------------------------------------------------
                         Redundant Internal Coordinates
                            (Angstroem and degrees)

        Definition                    Value    dE/dq     Step     New-Value
    ----------------------------------------------------------------------------
     1. B(H   1,C   0)                1.0700 -0.006548  0.0070    1.0770   
     2. B(H   2,C   0)                1.0700 -0.008116  0.0087    1.0787   
     3. B(C   3,C   0)                1.3552  0.029008 -0.0188    1.3364   
     4. B(C   4,C   3)                1.5400  0.002520 -0.0029    1.5371   
     5. B(H   5,C   4)                1.0700 -0.013020  0.0140    1.0840   
     6. B(H   6,C   4)                1.0700 -0.001825  0.0020    1.0720   
     7. B(H   7,C   4)                1.0700 -0.013083  0.0141    1.0841   
     8. B(O   8,C   3)                1.4300  0.010956 -0.0099    1.4201   
     9. B(C   9,O   8)                1.4300 -0.006721  0.0061    1.4361   
    10. B(H  10,C   9)                1.0700 -0.012733  0.0137    1.0837   
    11. B(H  11,C   9)                1.0700 -0.016720  0.0180    1.0880   
    12. B(H  12,C   9)                1.0700 -0.004809  0.0052    1.0752   
    13. A(H   2,C   0,C   3)          119.89 -0.002874    0.36    120.25   
    14. A(H   1,C   0,H   2)          119.89  0.001369   -0.18    119.70   
    15. A(H   1,C   0,C   3)          120.23  0.001505   -0.17    120.05   
    16. A(C   4,C   3,O   8)          119.89 -0.047838    5.55    125.44   
    17. A(C   0,C   3,O   8)          120.23  0.036420   -4.11    116.12   
    18. A(C   0,C   3,C   4)          119.89  0.011417   -1.44    118.44   
    19. A(H   5,C   4,H   6)          109.47  0.008176   -1.01    108.46   
    20. A(C   3,C   4,H   6)          109.47 -0.023339    3.26    112.73   
    21. A(H   6,C   4,H   7)          109.47  0.006899   -0.79    108.68   
    22. A(C   3,C   4,H   5)          109.47  0.003989   -0.58    108.89   
    23. A(H   5,C   4,H   7)          109.47  0.002685   -0.64    108.83   
    24. A(C   3,C   4,H   7)          109.47  0.001591   -0.24    109.23   
    25. A(C   3,O   8,C   9)          109.50 -0.105755   12.19    121.69   
    26. A(O   8,C   9,H  11)          109.47 -0.004895    0.75    110.22   
    27. A(O   8,C   9,H  10)          109.47  0.014392   -2.04    107.43   
    28. A(H  11,C   9,H  12)          109.47  0.000598    0.40    109.87   
    29. A(H  10,C   9,H  12)          109.47  0.007174   -1.23    108.24   
    30. A(O   8,C   9,H  12)          109.47 -0.017870    2.42    111.90   
    31. A(H  10,C   9,H  11)          109.47  0.000602   -0.30    109.17   
    32. D(O   8,C   3,C   0,H   2)     -0.00  0.001932   -0.74     -0.74   
    33. D(O   8,C   3,C   0,H   1)    180.00  0.002788   -1.09    178.91   
    34. D(C   4,C   3,C   0,H   1)      0.00 -0.000432    0.13      0.13   
    35. D(C   4,C   3,C   0,H   2)    180.00 -0.001288    0.48    180.48   
    36. D(H   5,C   4,C   3,O   8)   -120.01  0.000943   -0.08   -120.09   
    37. D(H   6,C   4,C   3,C   0)    179.99  0.002315   -0.90    179.09   
    38. D(H   5,C   4,C   3,C   0)     59.99  0.004151   -1.30     58.69   
    39. D(H   7,C   4,C   3,C   0)    -60.01 -0.002554   -0.02    -60.03   
    40. D(H   6,C   4,C   3,O   8)     -0.01 -0.000894    0.32      0.31   
    41. D(C   9,O   8,C   3,C   4)    -22.70  0.006948   -3.13    -25.83   
    42. D(C   9,O   8,C   3,C   0)    157.30  0.003729   -1.91    155.40   
    43. D(H  12,C   9,O   8,C   3)     49.86 -0.013643    4.50     54.36   
    44. D(H  11,C   9,O   8,C   3)    -70.14 -0.000435    2.07    -68.07   
    45. D(H  10,C   9,O   8,C   3)    169.86 -0.006987    3.23    173.09   
    ----------------------------------------------------------------------------

Geometry step timings:
Preparation and reading OPT file:      0.000 s (11.077 %)
Internal coordinates            :      0.000 s ( 1.436 %)
B/P matrices and projection     :      0.000 s (22.872 %)
Hessian update/contruction      :      0.000 s ( 9.128 %)
Making the step                 :      0.000 s (29.231 %)
Converting the step to Cartesian:      0.000 s ( 4.103 %)
Storing new data                :      0.000 s ( 1.538 %)
Checking convergence            :      0.000 s ( 0.205 %)
Final printing                  :      0.000 s (20.103 %)
Total time                      :      0.001 s

Time for energy+gradient        :     36.650 s
Time for complete geometry iter :     36.671 s

         *************************************************************
         *                GEOMETRY OPTIMIZATION CYCLE   2            *
         *************************************************************
---------------------------------
CARTESIAN COORDINATES (ANGSTROEM)
---------------------------------
  C     -3.644028   -1.168689   -0.663591
  H     -3.149119   -2.122095   -0.741676
  H     -4.579988   -1.008813   -1.175515
  C     -3.095845   -0.187299    0.059058
  C     -1.756099   -0.456948    0.762720
  H     -1.017949   -0.732159    0.018111
  H     -1.392644    0.395213    1.302000
  H     -1.876962   -1.281104    1.456517
  O     -3.807229    1.041522    0.085910
  C     -3.661865    1.973988    1.168322
  H     -4.203701    2.872604    0.897615
  H     -4.088306    1.560783    2.079968
  H     -2.632946    2.238246    1.334100

----------------------------
CARTESIAN COORDINATES (A.U.)
----------------------------
  NO LB      ZA    FRAG     MASS         X           Y           Z
   0 C     6.0000    0    12.011   -6.886215   -2.208502   -1.254006
   1 H     1.0000    0     1.008   -5.950973   -4.010178   -1.401565
   2 H     1.0000    0     1.008   -8.654923   -1.906381   -2.221401
   3 C     6.0000    0    12.011   -5.850300   -0.353944    0.111604
   4 C     6.0000    0    12.011   -3.318545   -0.863507    1.441333
   5 H     1.0000    0     1.008   -1.923645   -1.383580    0.034225
   6 H     1.0000    0     1.008   -2.631716    0.746845    2.460424
   7 H     1.0000    0     1.008   -3.546944   -2.420937    2.752419
   8 O     8.0000    0    15.999   -7.194621    1.968192    0.162346
   9 C     6.0000    0    12.011   -6.919922    3.730296    2.207809
  10 H     1.0000    0     1.008   -7.943844    5.428435    1.696246
  11 H     1.0000    0     1.008   -7.725778    2.949452    3.930569
  12 H     1.0000    0     1.008   -4.975547    4.229673    2.521084

--------------------------------
INTERNAL COORDINATES (ANGSTROEM)
--------------------------------
 C      0   0   0     0.000000000000     0.00000000     0.00000000
 H      1   0   0     1.077039432788     0.00000000     0.00000000
 H      1   2   0     1.078724817380   119.70166714     0.00000000
 C      1   2   3     1.336358027785   120.05219477   180.34766718
 C      4   1   2     1.537131219745   118.44087388     0.09792144
 H      5   4   1     1.083996272443   108.88054137    58.66411678
 H      5   4   1     1.071961531386   112.72820103   179.05763379
 H      5   4   1     1.084064442780   109.21817023   299.96569201
 O      4   1   2     1.420137297365   116.11570268   178.93982280
 C      9   4   1     1.436050197740   121.69495695   155.40860707
 H     10   9   4     1.083688096771   107.42976107   173.07696881
 H     10   9   4     1.087973878388   110.19996464   291.90169599
 H     10   9   4     1.075169594550   111.88110560    54.40225730

---------------------------
INTERNAL COORDINATES (A.U.)
---------------------------
 C      0   0   0     0.000000000000     0.00000000     0.00000000
 H      1   0   0     2.035309563403     0.00000000     0.00000000
 H      1   2   0     2.038494478713   119.70166714     0.00000000
 C      1   2   3     2.525350689381   120.05219477   180.34766718
 C      4   1   2     2.904757037219   118.44087388     0.09792144
 H      5   4   1     2.048456085108   108.88054137    58.66411678
 H      5   4   1     2.025713720419   112.72820103   179.05763379
 H      5   4   1     2.048584908377   109.21817023   299.96569201
 O      4   1   2     2.683670564588   116.11570268   178.93982280
 C      9   4   1     2.713741588293   121.69495695   155.40860707
 H     10   9   4     2.047873717487   107.42976107   173.07696881
 H     10   9   4     2.055972671014   110.19996464   291.90169599
 H     10   9   4     2.031776081218   111.88110560    54.40225730

------------------------------------------------------------------------------
                   ___                                                        
                  /   \      - P O W E R E D   B Y -                         
                 /     \                                                     
                 |  |  |   _    _      __       _____    __    __             
                 |  |  |  | |  | |    /  \     |  _  \  |  |  /  |          
                  \  \/   | |  | |   /    \    | | | |  |  | /  /          
                 / \  \   | |__| |  /  /\  \   | |_| |  |  |/  /          
                |  |  |   |  __  | /  /__\  \  |    /   |      \           
                |  |  |   | |  | | |   __   |  |    \   |  |\   \          
                \     /   | |  | | |  |  |  |  | |\  \  |  | \   \       
                 \___/    |_|  |_| |__|  |__|  |_| \__\ |__|  \__/        
                                                                              
                      - O R C A' S   B I G   F R I E N D -                    
                                      &                                       
                       - I N T E G R A L  F E E D E R -                       
                                                                              
 v1 FN, 2020, v2 2021, v3 2022-2024                                           
------------------------------------------------------------------------------


----------------------
SHARK INTEGRAL PACKAGE
----------------------

Number of atoms                             ...     13
Number of basis functions                   ...    203
Number of shells                            ...     87
Maximum angular momentum                    ...      3
Integral batch strategy                     ... SHARK/LIBINT Hybrid
RI-J (if used) integral strategy            ... SPLIT-RIJ (Revised 2003 algorithm where possible)
Printlevel                                  ...      1
Contraction scheme used                     ... SEGMENTED contraction
Prescreening option                         ... SCHWARTZ
   Thresh                                   ... 2.500e-11
   Tcut                                     ... 2.500e-12
   Tpresel                                  ... 2.500e-12 
Coulomb Range Separation                    ... NOT USED
Exchange Range Separation                   ... NOT USED
Multipole approximations                    ... NOT USED
Finite Nucleus Model                        ... NOT USED
CABS basis                                  ... NOT available
Auxiliary Coulomb fitting basis             ... AVAILABLE
   # of basis functions in Aux-J            ...    333
   # of shells in Aux-J                     ...    115
   Maximum angular momentum in Aux-J        ...      4
Auxiliary J/K fitting basis                 ... NOT available
Auxiliary Correlation fitting basis         ... NOT available
Auxiliary 'external' fitting basis          ... NOT available

Checking pre-screening integrals            ... done (  0.0 sec) Dimension = 87
Check shell pair data                       ... done (  0.0 sec)
Shell pair information
Shell pair cut-off parameter TPreSel        ...   2.5e-12
Total number of shell pairs                 ...      3828
Shell pairs after pre-screening             ...      3655
Total number of primitive shell pairs       ...     11160
Primitive shell pairs kept                  ...      8402
          la=0 lb=0:   1134 shell pairs
          la=1 lb=0:   1075 shell pairs
          la=1 lb=1:    271 shell pairs
          la=2 lb=0:    471 shell pairs
          la=2 lb=1:    229 shell pairs
          la=2 lb=2:     55 shell pairs
          la=3 lb=0:    240 shell pairs
          la=3 lb=1:    115 shell pairs
          la=3 lb=2:     50 shell pairs
          la=3 lb=3:     15 shell pairs

Calculating one electron integrals          ... done (  0.0 sec)
Calculating RI/J V-Matrix + Cholesky decomp.... done (  0.0 sec)
Calculating Nuclear repulsion               ... done (  0.0 sec) ENN=    176.604056370500 Eh

Diagonalization of the overlap matrix:
Smallest eigenvalue                        ... 1.572e-04
Time for diagonalization                   ...    0.002 sec
Threshold for overlap eigenvalues          ... 1.000e-07
Number of eigenvalues below threshold      ... 0
Time for construction of square roots      ...    0.001 sec
Total time needed                          ...    0.003 sec

-------------------
DFT GRID GENERATION
-------------------

General Integration Accuracy     IntAcc      ... 4.388
Radial Grid Type                 RadialGrid  ... OptM3 with GC (2021)
Angular Grid (max. ang.)         AngularGrid ... 4 (Lebedev-302)
Angular grid pruning method      GridPruning ... 4 (adaptive)
Weight generation scheme         WeightScheme... mBecke (2022)
Basis function cutoff            BFCut       ... 1.0000e-11
Integration weight cutoff        WCut        ... 1.0000e-14
Partially contracted basis set               ... off
Rotationally invariant grid construction     ... off
Angular grids for H and He will be reduced by one unit

Total number of grid points                  ...    56233
Total number of batches                      ...      886
Average number of points per batch           ...       63
Average number of grid points per atom       ...     4326

--------------------
COSX GRID GENERATION
--------------------

GRIDX 1
-------
General Integration Accuracy     IntAcc      ... 3.816
Radial Grid Type                 RadialGrid  ... OptM3 with GC (2021)
Angular Grid (max. ang.)         AngularGrid ... 1 (Lebedev-50)
Angular grid pruning method      GridPruning ... 4 (adaptive)
Weight generation scheme         WeightScheme... mBecke (2022)
Basis function cutoff            BFCut       ... 1.0000e-11
Integration weight cutoff        WCut        ... 1.0000e-14
Partially contracted basis set               ... on
Rotationally invariant grid construction     ... off
Angular grids for H and He will be reduced by one unit

Total number of grid points                  ...     7246
Total number of batches                      ...       65
Average number of points per batch           ...      111
Average number of grid points per atom       ...      557
UseSFitting                                  ... on

GRIDX 2
-------
General Integration Accuracy     IntAcc      ... 4.020
Radial Grid Type                 RadialGrid  ... OptM3 with GC (2021)
Angular Grid (max. ang.)         AngularGrid ... 2 (Lebedev-110)
Angular grid pruning method      GridPruning ... 4 (adaptive)
Weight generation scheme         WeightScheme... mBecke (2022)
Basis function cutoff            BFCut       ... 1.0000e-11
Integration weight cutoff        WCut        ... 1.0000e-14
Partially contracted basis set               ... on
Rotationally invariant grid construction     ... off
Angular grids for H and He will be reduced by one unit

Total number of grid points                  ...    15303
Total number of batches                      ...      129
Average number of points per batch           ...      118
Average number of grid points per atom       ...     1177
UseSFitting                                  ... on

GRIDX 3
-------
General Integration Accuracy     IntAcc      ... 4.338
Radial Grid Type                 RadialGrid  ... OptM3 with GC (2021)
Angular Grid (max. ang.)         AngularGrid ... 3 (Lebedev-194)
Angular grid pruning method      GridPruning ... 4 (adaptive)
Weight generation scheme         WeightScheme... mBecke (2022)
Basis function cutoff            BFCut       ... 1.0000e-11
Integration weight cutoff        WCut        ... 1.0000e-14
Partially contracted basis set               ... on
Rotationally invariant grid construction     ... off
Angular grids for H and He will be reduced by one unit

Total number of grid points                  ...    33569
Total number of batches                      ...      265
Average number of points per batch           ...      126
Average number of grid points per atom       ...     2582
UseSFitting                                  ... on
Initializing property integral containers    ... done (  0.0 sec)

SHARK setup successfully completed in   0.5 seconds

Maximum memory used throughout the entire STARTUP-calculation: 30.5 MB
Occupation numbers will be reassigned to an Aufbau configuration
             **** ENERGY FILE WAS UPDATED (dienophile_1.en.tmp) ****
Finished Guess after   0.0 sec
Maximum memory used throughout the entire GUESS-calculation: 17.0 MB
----------------------------------------D-I-I-S--------------------------------------------
Iteration    Energy (Eh)           Delta-E    RMSDP     MaxDP     DIISErr   Damp  Time(sec)
-------------------------------------------------------------------------------------------
               ***  Starting incremental Fock matrix formation  ***
    1    -232.3371099697494344     0.00e+00  3.95e-04  7.14e-03  6.86e-02  0.700   1.9
    2    -232.3458158525757256    -8.71e-03  3.73e-04  6.79e-03  5.37e-02  0.700   1.0
                               ***Turning on AO-DIIS***
    3    -232.3525611756014939    -6.75e-03  3.05e-04  5.64e-03  4.00e-02  0.700   1.0
    4    -232.3574817527976677    -4.92e-03  7.74e-04  1.42e-02  2.88e-02  0.000   1.0
                              *** Initializing SOSCF ***
---------------------------------------S-O-S-C-F--------------------------------------
Iteration    Energy (Eh)           Delta-E    RMSDP     MaxDP     MaxGrad    Time(sec)
--------------------------------------------------------------------------------------
    5    -232.3696574934701573    -1.22e-02  4.68e-05  8.24e-04  1.11e-03     1.0
               *** Restarting incremental Fock matrix formation ***
    6    -232.3696729183469358    -1.54e-05  4.08e-05  1.13e-03  2.11e-04     1.9
    7    -232.3696734175526615    -4.99e-07  1.70e-05  4.29e-04  2.08e-04     1.5
    8    -232.3696753406389632    -1.92e-06  9.32e-06  2.10e-04  5.98e-05     1.5
    9    -232.3696754308995480    -9.03e-08  2.52e-06  6.63e-05  5.20e-05     1.4
   10    -232.3696754667843436    -3.59e-08  2.52e-06  5.08e-05  3.12e-05     1.3
   11    -232.3696754804189766    -1.36e-08  7.99e-07  1.52e-05  7.36e-06     1.3
   12    -232.3696754855525057    -5.13e-09  4.05e-07  7.17e-06  4.17e-06     1.2
                 **** Energy Check signals convergence ****

               *****************************************************
               *                     SUCCESS                       *
               *           SCF CONVERGED AFTER  12 CYCLES          *
               *****************************************************

Recomputing exchange energy using gridx3       ... done (    3.055 sec)
Old exchange energy                            :     -6.352857640 Eh
New exchange energy                            :     -6.352860510 Eh
Exchange energy change after final integration :     -0.000002870 Eh
Total energy after final integration           :   -232.369678355 Eh
             **** ENERGY FILE WAS UPDATED (dienophile_1.en.tmp) ****

----------------
TOTAL SCF ENERGY
----------------

Total Energy       :       -232.36967835531448 Eh           -6323.10041 eV

Components:
Nuclear Repulsion  :        176.60405637050005 Eh            4805.64069 eV
Electronic Energy  :       -408.97373185605255 Eh          -11128.74102 eV
One Electron Energy:       -663.67638049716788 Eh          -18059.55244 eV
Two Electron Energy:        254.70264864111533 Eh            6930.81143 eV

Virial components:
Potential Energy   :       -463.58993462571527 Eh          -12614.92345 eV
Kinetic Energy     :        231.22025627040082 Eh            6291.82304 eV
Virial Ratio       :          2.00497111327292

DFT components:
N(Alpha)           :       20.000016399596 electrons
N(Beta)            :       20.000016399596 electrons
N(Total)           :       40.000032799192 electrons
E(X)               :      -25.237178579999 Eh       
E(C)               :       -1.551739616280 Eh       
E(XC)              :      -26.788918196278 Eh       

---------------
SCF CONVERGENCE
---------------

  Last Energy change         ...    5.1335e-09  Tolerance :   1.0000e-08
  Last MAX-Density change    ...    7.1658e-06  Tolerance :   1.0000e-07
  Last RMS-Density change    ...    4.0496e-07  Tolerance :   5.0000e-09
  Last DIIS Error            ...    1.1058e-03  Tolerance :   5.0000e-07
  Last Orbital Gradient      ...    4.1678e-06  Tolerance :   1.0000e-05
  Last Orbital Rotation      ...    4.4992e-06  Tolerance :   1.0000e-05


Total SCF time: 0 days 0 hours 0 min 19 sec 
Finished LeanSCF after  19.1 sec

Maximum memory used throughout the entire LEANSCF-calculation: 23.5 MB


-------------------------------------------------------------------------------
                          DFT DISPERSION CORRECTION                            
                                                                               
                              DFTD3 V3.1  Rev 1                                
                          USING Becke-Johnson damping                          
-------------------------------------------------------------------------------
-------------------------   ----------------
Dispersion correction           -0.014238019
-------------------------   ----------------


-------------------------   --------------------
FINAL SINGLE POINT ENERGY      -232.383916374580
-------------------------   --------------------

------------------------------------------------------------------------------
                         ORCA SCF GRADIENT CALCULATION
------------------------------------------------------------------------------

Nuc. rep. gradient        (SHARK) ... done (  0.0 sec)
HCore & Overlap gradient  (SHARK) ... done (  0.1 sec)
Split-RIJ-J gradient      (SHARK) ... done (  0.5 sec)
COSX-gradient                     ... done ( 12.7 sec)
XC gradient                       ... done (  1.9 sec)
Dispersion correction             ... done (  0.0 sec)

-------------------
DISPERSION GRADIENT
-------------------

   1   C   :   -0.000223258   -0.000340920   -0.000324553
   2   H   :   -0.000073802   -0.000178297   -0.000119589
   3   H   :   -0.000138262   -0.000107606   -0.000139033
   4   C   :    0.000012699   -0.000196139   -0.000148364
   5   C   :    0.000357372   -0.000231592    0.000052788
   6   H   :    0.000247002   -0.000061910    0.000002549
   7   H   :    0.000267714   -0.000022764    0.000108798
   8   H   :    0.000176110   -0.000147122    0.000150902
   9   O   :   -0.000193160    0.000216740   -0.000053224
  10   C   :   -0.000197524    0.000450568    0.000159294
  11   H   :   -0.000078382    0.000179358    0.000037519
  12   H   :   -0.000150041    0.000184777    0.000177617
  13   H   :   -0.000006468    0.000254908    0.000095295

Difference to translation invariance:
           :    0.0000000000   -0.0000000000   -0.0000000000

Difference to rotation invariance:
           :    0.0000000000   -0.0000000000    0.0000000000

Norm of the Dispersion gradient    ...    0.0011826248
RMS gradient                       ...    0.0001893715
MAX gradient                       ...    0.0004505685

------------------
CARTESIAN GRADIENT
------------------

   1   C   :    0.001671162   -0.011759697   -0.003621876
   2   H   :   -0.001012626    0.001551238    0.002082587
   3   H   :    0.001713061    0.001840145    0.000795517
   4   C   :    0.011778293   -0.003007320   -0.001016753
   5   C   :    0.018753798   -0.010587606    0.007094657
   6   H   :   -0.002934409    0.000446246    0.001706291
   7   H   :   -0.004756502   -0.008849323   -0.006249656
   8   H   :   -0.000387922    0.002006461   -0.002849210
   9   O   :   -0.019668883    0.013562055   -0.002123776
  10   C   :    0.002475582    0.016718188    0.006964318
  11   H   :    0.003052014   -0.000334799    0.003877148
  12   H   :    0.000759415    0.000793585   -0.004275406
  13   H   :   -0.011442983   -0.002379174   -0.002383841

Difference to translation invariance:
           :   -0.0000000000   -0.0000000000   -0.0000000000

Difference to rotation invariance:
           :    0.0000673561    0.0000603043   -0.0001493387

Norm of the Cartesian gradient     ...    0.0457333285
RMS gradient                       ...    0.0073231935
MAX gradient                       ...    0.0196688825

-------
TIMINGS
-------

Total SCF gradient time     ....       15.196 sec

Densities                   ....       0.000 sec  (  0.0%)
One electron gradient       ....       0.090 sec  (  0.6%)
RI-J Coulomb gradient       ....       0.510 sec  (  3.4%)
COSX gradient               ....      12.682 sec  ( 83.5%)
XC gradient                 ....       1.896 sec  ( 12.5%)

Maximum memory used throughout the entire SCFGRAD-calculation: 35.5 MB
------------------------------------------------------------------------------
                         ORCA GEOMETRY RELAXATION STEP
------------------------------------------------------------------------------

Reading the OPT-File                    .... done
Getting information on internals        .... done
Copying old internal coords+grads       .... done
Making the new internal coordinates     .... (2022 redundants) done
Validating the new internal coordinates .... (2022 redundants) done
Calculating the B-matrix                .... done
Calculating the G,G- and P matrices     .... done
Transforming gradient to internals      .... done
Projecting the internal gradient        .... done
Number of atoms                         ....  13
Number of internal coordinates          ....  45
Current Energy                          ....  -232.383916375 Eh
Current gradient norm                   ....     0.045733329 Eh/bohr
Maximum allowed component of the step   ....  0.300
Current trust radius                    ....  0.300
Updating the Hessian (BFGS)             .... done
Forming the augmented Hessian           .... done
Diagonalizing the augmented Hessian     .... done
Last element of RFO vector              ....  0.986304537
Lowest eigenvalues of augmented Hessian:
 -0.006737227  0.009764748  0.016955680  0.019337443  0.020867983
Length of the computed step             ....  0.167224630
The final length of the internal step   ....  0.167224630
Converting the step to Cartesian space:
 Initial RMS(Int)=    0.0249283760
Transforming coordinates:
 Iter   0:  RMS(Cart)=    0.0563606046 RMS(Int)=    0.0250236049
done
Storing new coordinates                 .... done
The predicted energy change is          ....    -0.003462814
Previously predicted energy change      ....    -0.024013571
Actually observed energy change         ....    -0.010863034
Ratio of predicted to observed change   ....     0.452370607
New trust radius                        ....     0.200000000

                                .--------------------.
          ----------------------|Geometry convergence|-------------------------
          Item                value                   Tolerance       Converged
          ---------------------------------------------------------------------
          Energy change      -0.0108630339            0.0000050000      NO
          RMS gradient        0.0090439802            0.0001000000      NO
          MAX gradient        0.0370178666            0.0003000000      NO
          RMS step            0.0249283760            0.0020000000      NO
          MAX step            0.0681007467            0.0040000000      NO
          ........................................................
          Max(Bonds)      0.0360      Max(Angles)    2.45
          Max(Dihed)        3.27      Max(Improp)    0.00
          ---------------------------------------------------------------------

The optimization has not yet converged - more geometry cycles are needed


    ---------------------------------------------------------------------------
                         Redundant Internal Coordinates
                            (Angstroem and degrees)

        Definition                    Value    dE/dq     Step     New-Value
    ----------------------------------------------------------------------------
     1. B(H   1,C   0)                1.0770 -0.001987  0.0034    1.0804   
     2. B(H   2,C   0)                1.0787 -0.001594  0.0032    1.0819   
     3. B(C   3,C   0)                1.3364  0.005574 -0.0062    1.3302   
     4. B(C   4,C   3)                1.5371  0.012151 -0.0156    1.5215   
     5. B(H   5,C   4)                1.0840 -0.003284  0.0060    1.0900   
     6. B(H   6,C   4)                1.0720 -0.011789  0.0140    1.0859   
     7. B(H   7,C   4)                1.0841 -0.003307  0.0060    1.0901   
     8. B(O   8,C   3)                1.4201  0.037018 -0.0360    1.3841   
     9. B(C   9,O   8)                1.4361  0.012232 -0.0105    1.4255   
    10. B(H  10,C   9)                1.0837 -0.002771  0.0053    1.0890   
    11. B(H  11,C   9)                1.0880 -0.004181  0.0077    1.0956   
    12. B(H  12,C   9)                1.0752 -0.011906  0.0146    1.0898   
    13. A(H   2,C   0,C   3)          120.25 -0.001970    0.34    120.58   
    14. A(H   1,C   0,H   2)          119.70  0.001994   -0.33    119.37   
    15. A(H   1,C   0,C   3)          120.05 -0.000021   -0.01    120.05   
    16. A(C   4,C   3,O   8)          125.43  0.026303   -2.45    122.98   
    17. A(C   0,C   3,O   8)          116.12 -0.005676    0.11    116.22   
    18. A(C   0,C   3,C   4)          118.44 -0.020612    2.35    120.79   
    19. A(H   5,C   4,H   6)          108.45  0.001083   -0.35    108.10   
    20. A(C   3,C   4,H   6)          112.73 -0.000781    0.64    113.37   
    21. A(H   6,C   4,H   7)          108.67  0.001243   -0.34    108.34   
    22. A(C   3,C   4,H   5)          108.88 -0.000897    0.06    108.94   
    23. A(H   5,C   4,H   7)          108.82  0.000465   -0.14    108.68   
    24. A(C   3,C   4,H   7)          109.22 -0.001054    0.13    109.35   
    25. A(C   3,O   8,C   9)          121.69  0.020454   -0.64    121.05   
    26. A(O   8,C   9,H  11)          110.20 -0.002718    0.53    110.73   
    27. A(O   8,C   9,H  10)          107.43  0.006428   -1.31    106.12   
    28. A(H  11,C   9,H  12)          109.83  0.000794    0.06    109.89   
    29. A(H  10,C   9,H  12)          108.25 -0.002387    0.12    108.37   
    30. A(O   8,C   9,H  12)          111.88 -0.000837    0.53    112.41   
    31. A(H  10,C   9,H  11)          109.16 -0.001193    0.07    109.23   
    32. D(O   8,C   3,C   0,H   2)     -0.71  0.001238   -2.00     -2.71   
    33. D(O   8,C   3,C   0,H   1)    178.94  0.002014   -3.06    175.88   
    34. D(C   4,C   3,C   0,H   1)      0.10  0.000943   -0.82     -0.72   
    35. D(C   4,C   3,C   0,H   2)   -179.55  0.000167    0.24   -179.31   
    36. D(H   5,C   4,C   3,O   8)   -120.06 -0.000584    0.80   -119.26   
    37. D(H   6,C   4,C   3,C   0)    179.06  0.000365   -1.43    177.63   
    38. D(H   5,C   4,C   3,C   0)     58.66  0.000118   -1.42     57.24   
    39. D(H   7,C   4,C   3,C   0)    -60.03  0.000693   -1.37    -61.40   
    40. D(H   6,C   4,C   3,O   8)      0.33 -0.000336    0.80      1.13   
    41. D(C   9,O   8,C   3,C   4)    -25.84 -0.000411   -1.46    -27.30   
    42. D(C   9,O   8,C   3,C   0)    155.41 -0.000915    0.77    156.18   
    43. D(H  12,C   9,O   8,C   3)     54.40 -0.001111    3.27     57.67   
    44. D(H  11,C   9,O   8,C   3)    -68.10  0.000383    2.55    -65.55   
    45. D(H  10,C   9,O   8,C   3)    173.08 -0.000467    2.94    176.02   
    ----------------------------------------------------------------------------

Geometry step timings:
Preparation and reading OPT file:      0.000 s (14.405 %)
Internal coordinates            :      0.000 s ( 1.548 %)
B/P matrices and projection     :      0.000 s (24.405 %)
Hessian update/contruction      :      0.000 s (12.024 %)
Making the step                 :      0.000 s (17.857 %)
Converting the step to Cartesian:      0.000 s ( 2.976 %)
Storing new data                :      0.000 s ( 1.429 %)
Checking convergence            :      0.000 s ( 0.595 %)
Final printing                  :      0.000 s (24.524 %)
Total time                      :      0.001 s

Time for energy+gradient        :     34.960 s
Time for complete geometry iter :     34.976 s

         *************************************************************
         *                GEOMETRY OPTIMIZATION CYCLE   3            *
         *************************************************************
---------------------------------
CARTESIAN COORDINATES (ANGSTROEM)
---------------------------------
  C     -3.660856   -1.162376   -0.670172
  H     -3.156937   -2.112072   -0.777396
  H     -4.598376   -0.998156   -1.184632
  C     -3.115088   -0.198314    0.066052
  C     -1.789393   -0.419677    0.779194
  H     -1.034499   -0.698034    0.043854
  H     -1.434652    0.458114    1.311092
  H     -1.896165   -1.234664    1.495222
  O     -3.783309    1.013736    0.078171
  C     -3.625454    1.929617    1.159088
  H     -4.193726    2.818224    0.888086
  H     -4.032527    1.509535    2.085488
  H     -2.585699    2.219316    1.309494

----------------------------
CARTESIAN COORDINATES (A.U.)
----------------------------
  NO LB      ZA    FRAG     MASS         X           Y           Z
   0 C     6.0000    0    12.011   -6.918016   -2.196573   -1.266442
   1 H     1.0000    0     1.008   -5.965747   -3.991237   -1.469066
   2 H     1.0000    0     1.008   -8.689671   -1.886241   -2.238631
   3 C     6.0000    0    12.011   -5.886663   -0.374760    0.124821
   4 C     6.0000    0    12.011   -3.381462   -0.793075    1.472463
   5 H     1.0000    0     1.008   -1.954920   -1.319093    0.082872
   6 H     1.0000    0     1.008   -2.711099    0.865709    2.477605
   7 H     1.0000    0     1.008   -3.583232   -2.333177    2.825561
   8 O     8.0000    0    15.999   -7.149418    1.915683    0.147722
   9 C     6.0000    0    12.011   -6.851115    3.646449    2.190359
  10 H     1.0000    0     1.008   -7.924994    5.325672    1.678239
  11 H     1.0000    0     1.008   -7.620372    2.852608    3.941000
  12 H     1.0000    0     1.008   -4.886263    4.193899    2.474586

--------------------------------
INTERNAL COORDINATES (ANGSTROEM)
--------------------------------
 C      0   0   0     0.000000000000     0.00000000     0.00000000
 H      1   0   0     1.080440984173     0.00000000     0.00000000
 H      1   2   0     1.081933504585   119.36521727     0.00000000
 C      1   2   3     1.330152297351   120.04176903   181.39334632
 C      4   1   2     1.521525672232   120.76190685   359.25017869
 H      5   4   1     1.089986796317   108.92836744    57.20652996
 H      5   4   1     1.085943591596   113.36533409   177.59551305
 H      5   4   1     1.090092076006   109.34751070   298.58645606
 O      4   1   2     1.384099934742   116.19579929   175.90669381
 C      9   4   1     1.425531177183   121.05086544   156.15169209
 H     10   9   4     1.089035234067   106.12707635   176.01037545
 H     10   9   4     1.095625117374   110.71109301   294.42782529
 H     10   9   4     1.089787483013   112.40138185    57.70405669

---------------------------
INTERNAL COORDINATES (A.U.)
---------------------------
 C      0   0   0     0.000000000000     0.00000000     0.00000000
 H      1   0   0     2.041737563952     0.00000000     0.00000000
 H      1   2   0     2.044558018778   119.36521727     0.00000000
 C      1   2   3     2.513623558400   120.04176903   181.39334632
 C      4   1   2     2.875266826249   120.76190685   359.25017869
 H      5   4   1     2.059776534630   108.92836744    57.20652996
 H      5   4   1     2.052135985003   113.36533409   177.59551305
 H      5   4   1     2.059975484409   109.34751070   298.58645606
 O      4   1   2     2.615569818641   116.19579929   175.90669381
 C      9   4   1     2.693863520243   121.05086544   156.15169209
 H     10   9   4     2.057978342578   106.12707635   176.01037545
 H     10   9   4     2.070431417282   110.71109301   294.42782529
 H     10   9   4     2.059399887071   112.40138185    57.70405669

------------------------------------------------------------------------------
                   ___                                                        
                  /   \      - P O W E R E D   B Y -                         
                 /     \                                                     
                 |  |  |   _    _      __       _____    __    __             
                 |  |  |  | |  | |    /  \     |  _  \  |  |  /  |          
[...]
Check shell pair data                       ... done (  0.0 sec)
Shell pair information
Shell pair cut-off parameter TPreSel        ...   2.5e-12
Total number of shell pairs                 ...      3828
Shell pairs after pre-screening             ...      3680
Total number of primitive shell pairs       ...     11160
Primitive shell pairs kept                  ...      8510
          la=0 lb=0:   1142 shell pairs
          la=1 lb=0:   1082 shell pairs
          la=1 lb=1:    273 shell pairs
          la=2 lb=0:    477 shell pairs
          la=2 lb=1:    229 shell pairs
          la=2 lb=2:     55 shell pairs
          la=3 lb=0:    242 shell pairs
          la=3 lb=1:    115 shell pairs
          la=3 lb=2:     50 shell pairs
          la=3 lb=3:     15 shell pairs

Calculating one electron integrals          ... done (  0.0 sec)
Calculating RI/J V-Matrix + Cholesky decomp.... done (  0.0 sec)
Calculating Nuclear repulsion               ... done (  0.0 sec) ENN=    180.197972781658 Eh

Diagonalization of the overlap matrix:
Smallest eigenvalue                        ... 1.411e-04
Time for diagonalization                   ...    0.002 sec
Threshold for overlap eigenvalues          ... 1.000e-07
Number of eigenvalues below threshold      ... 0
Time for construction of square roots      ...    0.001 sec
Total time needed                          ...    0.003 sec

-------------------
DFT GRID GENERATION
-------------------

General Integration Accuracy     IntAcc      ... 4.388
Radial Grid Type                 RadialGrid  ... OptM3 with GC (2021)
Angular Grid (max. ang.)         AngularGrid ... 4 (Lebedev-302)
Angular grid pruning method      GridPruning ... 4 (adaptive)
Weight generation scheme         WeightScheme... mBecke (2022)
Basis function cutoff            BFCut       ... 1.0000e-11
Integration weight cutoff        WCut        ... 1.0000e-14
Partially contracted basis set               ... off
Rotationally invariant grid construction     ... off
Angular grids for H and He will be reduced by one unit

Total number of grid points                  ...    56187
Total number of batches                      ...      883
Average number of points per batch           ...       63
Average number of grid points per atom       ...     4322

--------------------
COSX GRID GENERATION
--------------------

GRIDX 1
-------
General Integration Accuracy     IntAcc      ... 3.816
Radial Grid Type                 RadialGrid  ... OptM3 with GC (2021)
Angular Grid (max. ang.)         AngularGrid ... 1 (Lebedev-50)
Angular grid pruning method      GridPruning ... 4 (adaptive)
Weight generation scheme         WeightScheme... mBecke (2022)
Basis function cutoff            BFCut       ... 1.0000e-11
Integration weight cutoff        WCut        ... 1.0000e-14
Partially contracted basis set               ... on
Rotationally invariant grid construction     ... off
Angular grids for H and He will be reduced by one unit

Total number of grid points                  ...     7240
Total number of batches                      ...       65
Average number of points per batch           ...      111
Average number of grid points per atom       ...      557
UseSFitting                                  ... on

GRIDX 2
-------
General Integration Accuracy     IntAcc      ... 4.020
Radial Grid Type                 RadialGrid  ... OptM3 with GC (2021)
Angular Grid (max. ang.)         AngularGrid ... 2 (Lebedev-110)
Angular grid pruning method      GridPruning ... 4 (adaptive)
Weight generation scheme         WeightScheme... mBecke (2022)
Basis function cutoff            BFCut       ... 1.0000e-11
Integration weight cutoff        WCut        ... 1.0000e-14
Partially contracted basis set               ... on
Rotationally invariant grid construction     ... off
Angular grids for H and He will be reduced by one unit

Total number of grid points                  ...    15277
Total number of batches                      ...      125
Average number of points per batch           ...      122
Average number of grid points per atom       ...     1175
UseSFitting                                  ... on

GRIDX 3
-------
General Integration Accuracy     IntAcc      ... 4.338
Radial Grid Type                 RadialGrid  ... OptM3 with GC (2021)
Angular Grid (max. ang.)         AngularGrid ... 3 (Lebedev-194)
Angular grid pruning method      GridPruning ... 4 (adaptive)
Weight generation scheme         WeightScheme... mBecke (2022)
Basis function cutoff            BFCut       ... 1.0000e-11
Integration weight cutoff        WCut        ... 1.0000e-14
Partially contracted basis set               ... on
Rotationally invariant grid construction     ... off
Angular grids for H and He will be reduced by one unit

Total number of grid points                  ...    33538
Total number of batches                      ...      266
Average number of points per batch           ...      126
Average number of grid points per atom       ...     2580
UseSFitting                                  ... on
Initializing property integral containers    ... done (  0.0 sec)

SHARK setup successfully completed in   0.5 seconds

Maximum memory used throughout the entire STARTUP-calculation: 30.5 MB
Occupation numbers will be reassigned to an Aufbau configuration
             **** ENERGY FILE WAS UPDATED (dienophile_1.en.tmp) ****
Finished Guess after   0.0 sec
Maximum memory used throughout the entire GUESS-calculation: 17.0 MB
----------------------------------------D-I-I-S--------------------------------------------
Iteration    Energy (Eh)           Delta-E    RMSDP     MaxDP     DIISErr   Damp  Time(sec)
-------------------------------------------------------------------------------------------
               ***  Starting incremental Fock matrix formation  ***
                              *** Initializing SOSCF ***
---------------------------------------S-O-S-C-F--------------------------------------
Iteration    Energy (Eh)           Delta-E    RMSDP     MaxDP     MaxGrad    Time(sec)
--------------------------------------------------------------------------------------
    1    -232.3803801046610999     0.00e+00  1.43e-05  3.08e-04  4.85e-05     1.9
               *** Restarting incremental Fock matrix formation ***
    2    -232.3803836051173164    -3.50e-06  7.99e-06  1.51e-04  5.63e-05     1.9
    3    -232.3803839516377536    -3.47e-07  3.84e-06  8.32e-05  3.37e-05     1.4
    4    -232.3803839106363682     4.10e-08  2.29e-06  5.04e-05  6.67e-05     1.4
    5    -232.3803839722218356    -6.16e-08  1.99e-07  4.95e-06  2.07e-06     1.3
                  *** Gradient check signals convergence ***

               *****************************************************
               *                     SUCCESS                       *
               *           SCF CONVERGED AFTER   5 CYCLES          *
               *****************************************************

Recomputing exchange energy using gridx3       ... done (    3.130 sec)
Old exchange energy                            :     -6.359046519 Eh
New exchange energy                            :     -6.359036016 Eh
Exchange energy change after final integration :      0.000010503 Eh
Total energy after final integration           :   -232.380373469 Eh
             **** ENERGY FILE WAS UPDATED (dienophile_1.en.tmp) ****

----------------
TOTAL SCF ENERGY
----------------

Total Energy       :       -232.38037346881205 Eh           -6323.39144 eV

Components:
Nuclear Repulsion  :        180.19797278165751 Eh            4903.43613 eV
Electronic Energy  :       -412.57835675387935 Eh          -11226.82785 eV
One Electron Energy:       -670.74737997211264 Eh          -18251.96412 eV
Two Electron Energy:        258.16902321823329 Eh            7025.13627 eV

Virial components:
Potential Energy   :       -463.70795928711027 Eh          -12618.13507 eV
Kinetic Energy     :        231.32758581829819 Eh            6294.74363 eV
Virial Ratio       :          2.00455106833363

DFT components:
N(Alpha)           :       20.000034762237 electrons
N(Beta)            :       20.000034762237 electrons
N(Total)           :       40.000069524475 electrons
E(X)               :      -25.255806377484 Eh       
E(C)               :       -1.554452760379 Eh       
E(XC)              :      -26.810259137863 Eh       

---------------
SCF CONVERGENCE
---------------

  Last Energy change         ...    6.1585e-08  Tolerance :   1.0000e-08
  Last MAX-Density change    ...    4.9501e-06  Tolerance :   1.0000e-07
  Last RMS-Density change    ...    1.9851e-07  Tolerance :   5.0000e-09
  Last DIIS Error            ...    9.6416e-04  Tolerance :   5.0000e-07
  Last Orbital Gradient      ...    2.0744e-06  Tolerance :   1.0000e-05
  Last Orbital Rotation      ...    4.7820e-06  Tolerance :   1.0000e-05


----------------
ORBITAL ENERGIES
----------------

  NO   OCC          E(Eh)            E(eV) 
   0   2.0000     -19.143514      -520.9215 
   1   2.0000     -10.224225      -278.2153 
   2   2.0000     -10.219158      -278.0774 
   3   2.0000     -10.171753      -276.7875 
   4   2.0000     -10.141863      -275.9741 
   5   2.0000      -1.053551       -28.6686 
   6   2.0000      -0.785623       -21.3779 
   7   2.0000      -0.713272       -19.4091 
   8   2.0000      -0.673933       -18.3386 
   9   2.0000      -0.551964       -15.0197 
  10   2.0000      -0.488096       -13.2818 
  11   2.0000      -0.473051       -12.8724 
  12   2.0000      -0.468581       -12.7507 
  13   2.0000      -0.419037       -11.4026 
  14   2.0000      -0.406199       -11.0532 
  15   2.0000      -0.401763       -10.9325 
  16   2.0000      -0.375831       -10.2269 
  17   2.0000      -0.342616        -9.3230 
  18   2.0000      -0.307237        -8.3603 
  19   2.0000      -0.225108        -6.1255 
  20   0.0000       0.022997         0.6258 
  21   0.0000       0.035589         0.9684 
  22   0.0000       0.066496         1.8094 
  23   0.0000       0.085756         2.3335 
  24   0.0000       0.097065         2.6413 
  25   0.0000       0.100418         2.7325 
  26   0.0000       0.109813         2.9882 
  27   0.0000       0.115187         3.1344 
  28   0.0000       0.140546         3.8245 
  29   0.0000       0.149864         4.0780 
  30   0.0000       0.161545         4.3959 
*Only the first 10 virtual orbitals were printed.
Total SCF time: 0 days 0 hours 0 min 11 sec 
Finished LeanSCF after  11.2 sec

Maximum memory used throughout the entire LEANSCF-calculation: 25.2 MB


-------------------------------------------------------------------------------
                          DFT DISPERSION CORRECTION                            
                                                                               
                              DFTD3 V3.1  Rev 1                                
                          USING Becke-Johnson damping                          
-------------------------------------------------------------------------------
-------------------------   ----------------
Dispersion correction           -0.014732766
-------------------------   ----------------


-------------------------   --------------------
FINAL SINGLE POINT ENERGY      -232.395106234807
-------------------------   --------------------

                                *** OPTIMIZATION RUN DONE ***


------------------------------------------------------------------------------
                              ORCA PROPERTY CALCULATIONS
------------------------------------------------------------------------------

GBWName                                 ... dienophile_1.gbw
Number of atoms                         ...     13
Number of basis functions               ...    203
Max core memory                         ...   1024 MB

Electric properties:
Dipole moment                           ... YES
Quadrupole moment                       ...  NO
Static polarizability (Dipole/Dipole)   ...  NO
Static polarizability (Dipole/Quad.)    ...  NO
Static polarizability (Quad./Quad.)     ...  NO
Static polarizability (Velocity)        ...  NO

Atomic electric properties:
Dipole moment                           ...  NO
Quadrupole moment                       ...  NO
Static polarizability                   ...  NO

Choice of electric origin               ... Center of mass
Position of electric origin             ...    -5.994341     0.550444     0.544737

General magnetic properties:
Magnetizability                         ...  NO

EPR properties:
g-Tensor (aka g-matrix)                 ...  NO
Zero-Field splitting spin-orbit         ...  NO
Zero-field splitting spin-spin          ...  NO
Hyperfine couplings                     ...  NO (   0 nuclei)
Quadrupole couplings                    ...  NO (   0 nuclei)
Contact density                         ...  NO (   0 nuclei)

NMR properties:
Chemical shifts                         ...  NO (   0 nuclei)
Spin-rotation constants                 ...  NO (   0 nuclei)
Spin-spin couplings                     ...  NO (   0 nuclei,    0 pairs)

Choice of magnetic origin               ... GIAO
Position of magnetic origin             ...     0.000000     0.000000     0.000000

Properties with geometric perturbations:
SCF Hessian                             ...  NO
IR spectrum                             ...  NO
VCD spectrum                            ...  NO
X-ray spectroscopy properties:
SCF XES/XAS/RIXS spectra                ...  NO


-------------
DIPOLE MOMENT
-------------

Method             : SCF
Type of density    : Electron Density
Multiplicity       :   1
Irrep              :   0
Energy             :  -232.3803734688120528 Eh
Relativity type    : 
Basis              : AO
                                X                 Y                 Z
Electronic contribution:     -1.837347203       0.566235609      -2.192451470
Nuclear contribution   :      2.195199455      -0.406066605       2.818887885
                        -----------------------------------------
Total Dipole Moment    :      0.357852251       0.160169003       0.626436415
                        -----------------------------------------
Magnitude (a.u.)       :      0.739009421
Magnitude (Debye)      :      1.878412669



--------------------
Rotational spectrum 
--------------------
 
Rotational constants in cm-1:             0.276103             0.142309             0.099883 
Rotational constants in MHz :          8277.348988          4266.301684          2994.428279 

Dipole components along the rotational axes: 
x,y,z [a.u.] :    -0.351304     0.621590    -0.190646 
x,y,z [Debye]:    -0.892944     1.579956    -0.484585 

 

Dipole moment calculation done in   0.0 sec 

Maximum memory used throughout the entire PROP-calculation: 15.6 MB

--------------------------------
SUGGESTED CITATIONS FOR THIS RUN
--------------------------------

Below you find a list of papers that are relevant to this ORCA run
We neither can nor want to force you to cite these papers, but we appreciate if you do
You receive ORCA, which is the product of decades of hard work by many enthusiastic individuals, for free
The only thing we kindly ask in return is that you cite our papers,
We deeply appreciate it, if you show your appreciation for ORCA by not just citing the generic ORCA reference.

Please note that relegating all ORCA citations to the supporting information does *not* help us.
SI sections are not indexed - citations you put there will not count into any citation statistics
But we need these citations in order to attract the funding resources that allow us to do what we are doing

Therefore, if you are a happy ORCA user, please consider citing a few of the papers listed below in the main body of your paper

In addition to the list printed below, the program has created the file dienophile_1.bibtex that contains the list in bibtex format
You can import this file easily into all common literature databanks and citation aid programs


List of essential papers. We consider these as the minimum necessary citations

  1. Neese,F.
     Software update: the ORCA program system, version 5.0
     WIRES Comput. Molec. Sci., 2022 12(1)e1606
     doi.org/10.1002/wcms.1606

List of papers to cite with high priority. The work reported in these papers was absolutely
necessary for this run to complete.
Our perspective: the developers of density functionals and basis sets usually get cited in chemistry papers
Good! But without the algorithms to do something with them, the functionals or basis sets would not do anything.
Hence, in our opinion, the algorithm design and method developments papers are equally worthy of getting cited

  1. Neese,F.
     An improvement of the resolution of the identity approximation for the formation of the Coulomb matrix
     J. Comp. Chem., 2003 24(14)1740-1747
     doi.org/10.1002/jcc.10318
  2. Neese,F.; Wennmohs,F.; Hansen,A.; Becker,U.
     Efficient, approximate and parallel Hartree-Fock and hybrid DFT calculations. A 'chain-of-spheres' algorithm for the Hartree-Fock exchange
     Chem. Phys., 2009 356(1-3)98-109
     doi.org/10.1016/j.chemphys.2008.10.036
  3. Helmich-Paris,B.; de Souza,B.; Neese,F.; Izsák,R.
     An improved chain of spheres for exchange algorithm
     J. Chem. Phys., 2021 155 104109
     doi.org/doi: 10.1063/5.0058766.
  4. Neese,F.
     The SHARK Integral Generation and Digestion System
     J. Comp. Chem., 2022  1-16
     doi.org/10.1002/jcc.26942
  5. Grimme,S.; Antony,J.; Ehrlich,S.; Krieg,H.
     A consistent and accurate ab initio parametrization of density functional dispersion correction (DFT-D) for the 94 elements H-Pu
     J. Chem. Phys., 2010 132 154104
     doi.org/10.1063/1.3382344
  6. Grimme,S.; Ehrlich,S.; Goerigk,L.
     Effect of the damping function in dispersion corrected density functional theory
     J. Comput. Chem., 2011 32(7)1456-1465
     doi.org/10.1002/jcc.21759

List of suggested additional citations. These are papers that are important in the 'surrounding' of 
of this run, or papers that preceded the highly important papers. If you like your results we are grateful for a citation.

  1. Izsak,R.; Neese,F.
     An overlap fitted chain of spheres exchange method
     J. Chem. Phys., 2011 135 144105
     doi.org/10.1063/1.3646921
  2. Izsak,R.; Hansen,A.; Neese,F.
     The resolution of identity and chain of spheres approximations for the LPNO-CCSD singles Fock term
     Molec. Phys., 2012 110 2413-2417
     doi.org/10.1080/00268976.2012.687466
  3. Neese,F.
     The ORCA program system
     WIRES Comput. Molec. Sci., 2012 2(1)73-78
     doi.org/10.1002/wcms.81
  4. Izsak,R.; Neese,F.; Klopper,W.
     Robust fitting techniques in the chain of spheres approximation to the Fock exchange: The role of the complementary space
     J. Chem. Phys., 2013 139 
     doi.org/10.1063/1.4819264
  5. Neese,F.
     Software update: the ORCA program system, version 4.0
     WIRES Comput. Molec. Sci., 2018 8(1)1-6
     doi.org/10.1002/wcms.1327
  6. Neese,F.; Wennmohs,F.; Becker,U.; Riplinger,C.
     The ORCA quantum chemistry program package
     J. Chem. Phys., 2020 152 Art. No. L224108
     doi.org/10.1063/5.0004608

List of optional additional citations

  1. Neese,F.
     Approximate second-order SCF convergence for spin unrestricted wavefunctions
     Chem. Phys. Lett., 2000 325(1-3)93-98
     doi.org/10.1016/s0009-2614(00)00662-x

Timings for individual modules:

Sum of individual times          ...      562.817 sec (=   9.380 min)
Startup calculation              ...        9.930 sec (=   0.165 min)   1.8 %
SCF iterations                   ...      280.761 sec (=   4.679 min)  49.9 %
Property calculations            ...        0.049 sec (=   0.001 min)   0.0 %
SCF Gradient evaluation          ...      272.037 sec (=   4.534 min)  48.3 %
Geometry relaxation              ...        0.041 sec (=   0.001 min)   0.0 %
                             ****ORCA TERMINATED NORMALLY****
TOTAL RUN TIME: 0 days 0 hours 9 minutes 23 seconds 579 msec
